ITEM: TIMESTEP
0
ITEM: NUMBER OF NODES
121
ITEM: BOX BOUNDS
0 10
0 10
0 0
ITEM: NODES
1 1 0 0 0
2 1 0 1 0
3 1 0 2 0
4 1 0 3 0
5 1 0 4 0
6 1 0 5 0
7 1 0 6 0
8 1 0 7 0
9 1 0 8 0
10 1 0 9 0
11 1 0 10 0
12 1 1 0 0
13 1 1 1 0
14 1 1 2 0
15 1 1 3 0
16 1 1 4 0
17 1 1 5 0
18 1 1 6 0
19 1 1 7 0
20 1 1 8 0
21 1 1 9 0
22 1 1 10 0
23 1 2 0 0
24 1 2 1 0
25 1 2 2 0
26 1 2 3 0
27 1 2 4 0
28 1 2 5 0
29 1 2 6 0
30 1 2 7 0
31 1 2 8 0
32 1 2 9 0
33 1 2 10 0
34 1 3 0 0
35 1 3 1 0
36 1 3 2 0
37 1 3 3 0
38 1 3 4 0
39 1 3 5 0
40 1 3 6 0
41 1 3 7 0
42 1 3 8 0
43 1 3 9 0
44 1 3 10 0
45 1 4 0 0
46 1 4 1 0
47 1 4 2 0
48 1 4 3 0
49 1 4 4 0
50 1 4 5 0
51 1 4 6 0
52 1 4 7 0
53 1 4 8 0
54 1 4 9 0
55 1 4 10 0
56 1 5 0 0
57 1 5 1 0
58 1 5 2 0
59 1 5 3 0
60 1 5 4 0
61 1 5 5 0
62 1 5 6 0
63 1 5 7 0
64 1 5 8 0
65 1 5 9 0
66 1 5 10 0
67 1 6 0 0
68 1 6 1 0
69 1 6 2 0
70 1 6 3 0
71 1 6 4 0
72 1 6 5 0
73 1 6 6 0
74 1 6 7 0
75 1 6 8 0
76 1 6 9 0
77 1 6 10 0
78 1 7 0 0
79 1 7 1 0
80 1 7 2 0
81 1 7 3 0
82 1 7 4 0
83 1 7 5 0
84 1 7 6 0
85 1 7 7 0
86 1 7 8 0
87 1 7 9 0
88 1 7 10 0
89 1 8 0 0
90 1 8 1 0
91 1 8 2 0
92 1 8 3 0
93 1 8 4 0
94 1 8 5 0
95 1 8 6 0
96 1 8 7 0
97 1 8 8 0
98 1 8 9 0
99 1 8 10 0
100 1 9 0 0
101 1 9 1 0
102 1 9 2 0
103 1 9 3 0
104 1 9 4 0
105 1 9 5 0
106 1 9 6 0
107 1 9 7 0
108 1 9 8 0
109 1 9 9 0
110 1 9 10 0
111 1 10 0 0
112 1 10 1 0
113 1 10 2 0
114 1 10 3 0
115 1 10 4 0
116 1 10 5 0
117 1 10 6 0
118 1 10 7 0
119 1 10 8 0
120 1 10 9 0
121 1 10 10 0
ITEM: TIMESTEP
0
ITEM: NUMBER OF TRIANGLES
200
ITEM: TRIANGLES
1 1 1 13 12
2 1 1 2 13
3 1 2 14 13
4 1 2 3 14
5 1 3 15 14
6 1 3 4 15
7 1 4 16 15
8 1 4 5 16
9 1 5 17 16
10 1 5 6 17
11 1 6 18 17
12 1 6 7 18
13 1 7 19 18
14 1 7 8 19
15 1 8 20 19
16 1 8 9 20
17 1 9 21 20
18 1 9 10 21
19 1 10 22 21
20 1 10 11 22
21 1 12 24 23
22 1 12 13 24
23 1 13 25 24
24 1 13 14 25
25 1 14 26 25
26 1 14 15 26
27 1 15 27 26
28 1 15 16 27
29 1 16 28 27
30 1 16 17 28
31 1 17 29 28
32 1 17 18 29
33 1 18 30 29
34 1 18 19 30
35 1 19 31 30
36 1 19 20 31
37 1 20 32 31
38 1 20 21 32
39 1 21 33 32
40 1 21 22 33
41 1 23 35 34
42 1 23 24 35
43 1 24 36 35
44 1 24 25 36
45 1 25 37 36
46 1 25 26 37
47 1 26 38 37
48 1 26 27 38
49 1 27 39 38
50 1 27 28 39
51 1 28 40 39
52 1 28 29 40
53 1 29 41 40
54 1 29 30 41
55 1 30 42 41
56 1 30 31 42
57 1 31 43 42
58 1 31 32 43
59 1 32 44 43
60 1 32 33 44
61 1 34 46 45
62 1 34 35 46
63 1 35 47 46
64 1 35 36 47
65 1 36 48 47
66 1 36 37 48
67 1 37 49 48
68 1 37 38 49
69 1 38 50 49
70 1 38 39 50
71 1 39 51 50
72 1 39 40 51
73 1 40 52 51
74 1 40 41 52
75 1 41 53 52
76 1 41 42 53
77 1 42 54 53
78 1 42 43 54
79 1 43 55 54
80 1 43 44 55
81 1 45 57 56
82 1 45 46 57
83 1 46 58 57
84 1 46 47 58
85 1 47 59 58
86 1 47 48 59
87 1 48 60 59
88 1 48 49 60
89 1 49 61 60
90 1 49 50 61
91 1 50 62 61
92 1 50 51 62
93 1 51 63 62
94 1 51 52 63
95 1 52 64 63
96 1 52 53 64
97 1 53 65 64
98 1 53 54 65
99 1 54 66 65
100 1 54 55 66
101 1 56 68 67
102 1 56 57 68
103 1 57 69 68
104 1 57 58 69
105 1 58 70 69
106 1 58 59 70
107 1 59 71 70
108 1 59 60 71
109 1 60 72 71
110 1 60 61 72
111 1 61 73 72
112 1 61 62 73
113 1 62 74 73
114 1 62 63 74
115 1 63 75 74
116 1 63 64 75
117 1 64 76 75
118 1 64 65 76
119 1 65 77 76
120 1 65 66 77
121 1 67 79 78
122 1 67 68 79
123 1 68 80 79
124 1 68 69 80
125 1 69 81 80
126 1 69 70 81
127 1 70 82 81
128 1 70 71 82
129 1 71 83 82
130 1 71 72 83
131 1 72 84 83
132 1 72 73 84
133 1 73 85 84
134 1 73 74 85
135 1 74 86 85
136 1 74 75 86
137 1 75 87 86
138 1 75 76 87
139 1 76 88 87
140 1 76 77 88
141 1 78 90 89
142 1 78 79 90
143 1 79 91 90
144 1 79 80 91
145 1 80 92 91
146 1 80 81 92
147 1 81 93 92
148 1 81 82 93
149 1 82 94 93
150 1 82 83 94
151 1 83 95 94
152 1 83 84 95
153 1 84 96 95
154 1 84 85 96
155 1 85 97 96
156 1 85 86 97
157 1 86 98 97
158 1 86 87 98
159 1 87 99 98
160 1 87 88 99
161 1 89 101 100
162 1 89 90 101
163 1 90 102 101
164 1 90 91 102
165 1 91 103 102
166 1 91 92 103
167 1 92 104 103
168 1 92 93 104
169 1 93 105 104
170 1 93 94 105
171 1 94 106 105
172 1 94 95 106
173 1 95 107 106
174 1 95 96 107
175 1 96 108 107
176 1 96 97 108
177 1 97 109 108
178 1 97 98 109
179 1 98 110 109
180 1 98 99 110
181 1 100 112 111
182 1 100 101 112
183 1 101 113 112
184 1 101 102 113
185 1 102 114 113
186 1 102 103 114
187 1 103 115 114
188 1 103 104 115
189 1 104 116 115
190 1 104 105 116
191 1 105 117 116
192 1 105 106 117
193 1 106 118 117
194 1 106 107 118
195 1 107 119 118
196 1 107 108 119
197 1 108 120 119
198 1 108 109 120
199 1 109 121 120
200 1 109 110 121
ITEM: TIMESTEP
0
ITEM: NUMBER OF ELEMENT VALUES
200
ITEM: ELEMENT VALUES
1 1
2 1
3 9
4 9
5 13
6 13
7 10
8 10
9 14
10 14
11 2
12 2
13 14
14 14
15 1
16 1
17 16
18 16
19 15
20 15
21 19
22 19
23 14
24 14
25 7
26 7
27 4
28 4
29 16
30 16
31 20
32 20
33 7
34 7
35 9
36 9
37 2
38 2
39 3
40 3
41 6
42 6
43 16
44 16
45 1
46 1
47 10
48 10
49 16
50 16
51 15
52 15
53 7
54 7
55 14
56 14
57 4
58 4
59 1
60 1
61 18
62 18
63 14
64 14
65 18
66 18
67 5
68 5
69 18
70 18
71 10
72 10
73 7
74 7
75 6
76 6
77 17
78 17
79 13
80 13
81 18
82 18
83 11
84 11
85 13
86 13
87 19
88 19
89 19
90 19
91 5
92 5
93 16
94 16
95 14
96 14
97 11
98 11
99 15
100 15
101 10
102 10
103 15
104 15
105 18
106 18
107 1
108 1
109 3
110 3
111 7
112 7
113 6
114 6
115 15
116 15
117 2
118 2
119 19
120 19
121 13
122 13
123 12
124 12
125 2
126 2
127 3
128 3
129 6
130 6
131 4
132 4
133 3
134 3
135 5
136 5
137 15
138 15
139 7
140 7
141 11
142 11
143 7
144 7
145 18
146 18
147 7
148 7
149 6
150 6
151 3
152 3
153 20
154 20
155 19
156 19
157 1
158 1
159 16
160 16
161 18
162 18
163 13
164 13
165 9
166 9
167 11
168 11
169 12
170 12
171 5
172 5
173 12
174 12
175 13
176 13
177 17
178 17
179 7
180 7
181 15
182 15
183 1
184 1
185 18
186 18
187 16
188 16
189 18
190 18
191 9
192 9
193 13
194 13
195 4
196 4
197 11
198 11
199 18
200 18
ITEM: TIMESTEP
10
ITEM: NUMBER OF ELEMENT VALUES
200
ITEM: ELEMENT VALUES
1 1
2 1
3 17
4 17
5 10
6 10
7 1
8 1
9 1
10 1
11 18
12 18
13 1
14 1
15 1
16 1
17 18
18 18
19 1
20 1
21 1
22 1
23 16
24 16
25 16
26 16
27 16
28 16
29 16
30 16
31 18
32 18
33 18
34 18
35 1
36 1
37 6
38 6
39 1
40 1
41 18
42 18
43 20
44 20
45 9
46 9
47 16
48 16
49 16
50 16
51 19
52 19
53 7
54 7
55 7
56 7
57 6
58 6
59 18
60 18
61 18
62 18
63 10
64 10
65 9
66 9
67 19
68 19
69 19
70 19
71 19
72 19
73 7
74 7
75 11
76 11
77 11
78 11
79 18
80 18
81 9
82 9
83 16
84 16
85 9
86 9
87 19
88 19
89 19
90 19
91 19
92 19
93 15
94 15
95 11
96 11
97 11
98 11
99 19
100 19
101 9
102 9
103 2
104 2
105 2
106 2
107 19
108 19
109 19
110 19
111 15
112 15
113 8
114 8
115 11
116 11
117 9
118 9
119 9
120 9
121 8
122 8
123 2
124 2
125 2
126 2
127 6
128 6
129 6
130 6
131 18
132 18
133 15
134 15
135 9
136 9
137 9
138 9
139 9
140 9
141 9
142 9
143 12
144 12
145 12
146 12
147 20
148 20
149 12
150 12
151 15
152 15
153 15
154 15
155 1
156 1
157 9
158 9
159 9
160 9
161 18
162 18
163 12
164 12
165 12
166 12
167 20
168 20
169 12
170 12
171 12
172 12
173 12
174 12
175 1
176 1
177 9
178 9
179 9
180 9
181 7
182 7
183 17
184 17
185 17
186 17
187 12
188 12
189 1
190 1
191 12
192 12
193 18
194 18
195 1
196 1
197 1
198 1
199 18
200 18
ITEM: TIMESTEP
20
ITEM: NUMBER OF ELEMENT VALUES
200
ITEM: ELEMENT VALUES
1 1
2 1
3 10
4 10
5 10
6 10
7 16
8 16
9 20
10 20
11 12
12 12
13 1
14 1
15 1
16 1
17 1
18 1
19 1
20 1
21 1
22 1
23 10
24 10
25 10
26 10
27 16
28 16
29 16
30 16
31 12
32 12
33 1
34 1
35 1
36 1
37 16
38 16
39 1
40 1
41 18
42 18
43 18
44 18
45 9
46 9
47 9
48 9
49 16
50 16
51 16
52 16
53 11
54 11
55 20
56 20
57 18
58 18
59 18
60 18
61 18
62 18
63 9
64 9
65 9
66 9
67 9
68 9
69 19
70 19
71 19
72 19
73 11
74 11
75 11
76 11
77 9
78 9
79 18
80 18
81 9
82 9
83 19
84 19
85 19
86 19
87 19
88 19
89 19
90 19
91 19
92 19
93 15
94 15
95 11
96 11
97 9
98 9
99 9
100 9
101 9
102 9
103 7
104 7
105 19
106 19
107 19
108 19
109 19
110 19
111 15
112 15
113 15
114 15
115 15
116 15
117 9
118 9
119 9
120 9
121 7
122 7
123 7
124 7
125 11
126 11
127 19
128 19
129 12
130 12
131 19
132 19
133 15
134 15
135 15
136 15
137 9
138 9
139 9
140 9
141 9
142 9
143 12
144 12
145 12
146 12
147 12
148 12
149 12
150 12
151 15
152 15
153 15
154 15
155 15
156 15
157 9
158 9
159 9
160 9
161 1
162 1
163 12
164 12
165 12
166 12
167 6
168 6
169 12
170 12
171 12
172 12
173 12
174 12
175 1
176 1
177 9
178 9
179 1
180 1
181 1
182 1
183 12
184 12
185 10
186 10
187 12
188 12
189 12
190 12
191 12
192 12
193 20
194 20
195 1
196 1
197 1
198 1
199 1
200 1
ITEM: TIMESTEP
30
ITEM: NUMBER OF ELEMENT VALUES
200
ITEM: ELEMENT VALUES
1 1
2 1
3 1
4 1
5 10
6 10
7 16
8 16
9 16
10 16
11 1
12 1
13 1
14 1
15 1
16 1
17 1
18 1
19 1
20 1
21 1
22 1
23 10
24 10
25 10
26 10
27 16
28 16
29 16
30 16
31 16
32 16
33 1
34 1
35 1
36 1
37 1
38 1
39 1
40 1
41 18
42 18
43 18
44 18
45 9
46 9
47 16
48 16
49 16
50 16
51 16
52 16
53 11
54 11
55 1
56 1
57 1
58 1
59 18
60 18
61 18
62 18
63 9
64 9
65 9
66 9
67 9
68 9
69 19
70 19
71 19
72 19
73 11
74 11
75 11
76 11
77 18
78 18
79 18
80 18
81 9
82 9
83 9
84 9
85 19
86 19
87 19
88 19
89 19
90 19
91 19
92 19
93 11
94 11
95 11
96 11
97 9
98 9
99 9
100 9
101 9
102 9
103 5
104 5
105 19
106 19
107 19
108 19
109 19
110 19
111 19
112 19
113 15
114 15
115 15
116 15
117 9
118 9
119 9
120 9
121 9
122 9
123 12
124 12
125 5
126 5
127 19
128 19
129 12
130 12
131 15
132 15
133 15
134 15
135 15
136 15
137 9
138 9
139 9
140 9
141 9
142 9
143 12
144 12
145 12
146 12
147 12
148 12
149 12
150 12
151 12
152 12
153 15
154 15
155 15
156 15
157 9
158 9
159 9
160 9
161 1
162 1
163 12
164 12
165 12
166 12
167 12
168 12
169 12
170 12
171 12
172 12
173 12
174 12
175 1
176 1
177 1
178 1
179 1
180 1
181 1
182 1
183 1
184 1
185 16
186 16
187 12
188 12
189 12
190 12
191 12
192 12
193 20
194 20
195 1
196 1
197 1
198 1
199 1
200 1
ITEM: TIMESTEP
40
ITEM: NUMBER OF ELEMENT VALUES
200
ITEM: ELEMENT VALUES
1 1
2 1
3 1
4 1
5 10
6 10
7 16
8 16
9 16
10 16
11 1
12 1
13 1
14 1
15 1
16 1
17 1
18 1
19 1
20 1
21 1
22 1
23 10
24 10
25 9
26 9
27 16
28 16
29 16
30 16
31 16
32 16
33 1
34 1
35 1
36 1
37 1
38 1
39 1
40 1
41 1
42 1
43 9
44 9
45 9
46 9
47 16
48 16
49 16
50 16
51 16
52 16
53 11
54 11
55 1
56 1
57 1
58 1
59 1
60 1
61 1
62 1
63 9
64 9
65 9
66 9
67 9
68 9
69 19
70 19
71 19
72 19
73 11
74 11
75 11
76 11
77 9
78 9
79 18
80 18
81 9
82 9
83 9
84 9
85 9
86 9
87 19
88 19
89 19
90 19
91 19
92 19
93 11
94 11
95 11
96 11
97 9
98 9
99 9
100 9
101 9
102 9
103 9
104 9
105 9
106 9
107 19
108 19
109 19
110 19
111 19
112 19
113 15
114 15
115 15
116 15
117 9
118 9
119 9
120 9
121 9
122 9
123 12
124 12
125 15
126 15
127 12
128 12
129 19
130 19
131 12
132 12
133 15
134 15
135 15
136 15
137 9
138 9
139 9
140 9
141 12
142 12
143 12
144 12
145 12
146 12
147 12
148 12
149 12
150 12
151 12
152 12
153 12
154 12
155 15
156 15
157 1
158 1
159 9
160 9
161 1
162 1
163 12
164 12
165 12
166 12
167 12
168 12
169 12
170 12
171 12
172 12
173 12
174 12
175 1
176 1
177 1
178 1
179 1
180 1
181 1
182 1
183 1
184 1
185 10
186 10
187 12
188 12
189 12
190 12
191 12
192 12
193 10
194 10
195 1
196 1
197 1
198 1
199 1
200 1
ITEM: TIMESTEP
50
ITEM: NUMBER OF ELEMENT VALUES
200
ITEM: ELEMENT VALUES
1 1
2 1
3 1
4 1
5 16
6 16
7 16
8 16
9 16
10 16
11 1
12 1
13 1
14 1
15 1
16 1
17 1
18 1
19 1
20 1
21 1
22 1
23 1
24 1
25 16
26 16
27 16
28 16
29 16
30 16
31 16
32 16
33 1
34 1
35 1
36 1
37 1
38 1
39 1
40 1
41 1
42 1
43 9
44 9
45 9
46 9
47 16
48 16
49 16
50 16
51 16
52 16
53 11
54 11
55 1
56 1
57 1
58 1
59 1
60 1
61 1
62 1
63 9
64 9
65 9
66 9
67 9
68 9
69 19
70 19
71 19
72 19
73 11
74 11
75 9
76 9
77 9
78 9
79 9
80 9
81 9
82 9
83 9
84 9
85 9
86 9
87 19
88 19
89 19
90 19
91 19
92 19
93 15
94 15
95 15
96 15
97 9
98 9
99 9
100 9
101 9
102 9
103 9
104 9
105 9
106 9
107 19
108 19
109 19
110 19
111 19
112 19
113 15
114 15
115 15
116 15
117 9
118 9
119 9
120 9
121 9
122 9
123 9
124 9
125 12
126 12
127 12
128 12
129 19
130 19
131 19
132 19
133 15
134 15
135 15
136 15
137 9
138 9
139 9
140 9
141 9
142 9
143 12
144 12
145 12
146 12
147 12
148 12
149 12
150 12
151 12
152 12
153 12
154 12
155 1
156 1
157 1
158 1
159 9
160 9
161 1
162 1
163 12
164 12
165 12
166 12
167 12
168 12
169 12
170 12
171 12
172 12
173 12
174 12
175 1
176 1
177 1
178 1
179 1
180 1
181 1
182 1
183 1
184 1
185 16
186 16
187 12
188 12
189 12
190 12
191 12
192 12
193 6
194 6
195 1
196 1
197 1
198 1
199 1
200 1
ITEM: TIMESTEP
60
ITEM: NUMBER OF ELEMENT VALUES
200
ITEM: ELEMENT VALUES
1 1
2 1
3 1
4 1
5 16
6 16
7 16
8 16
9 16
10 16
11 1
12 1
13 1
14 1
15 1
16 1
17 1
18 1
19 1
20 1
21 1
22 1
23 1
24 1
25 16
26 16
27 16
28 16
29 16
30 16
31 16
32 16
33 1
34 1
35 1
36 1
37 1
38 1
39 1
40 1
41 1
42 1
43 9
44 9
45 9
46 9
47 16
48 16
49 16
50 16
51 16
52 16
53 1
54 1
55 1
56 1
57 1
58 1
59 1
60 1
61 9
62 9
63 9
64 9
65 9
66 9
67 9
68 9
69 19
70 19
71 19
72 19
73 1
74 1
75 1
76 1
77 9
78 9
79 9
80 9
81 9
82 9
83 9
84 9
85 9
86 9
87 19
88 19
89 19
90 19
91 19
92 19
93 15
94 15
95 15
96 15
97 9
98 9
99 9
100 9
101 9
102 9
103 9
104 9
105 9
106 9
107 19
108 19
109 19
110 19
111 19
112 19
113 15
114 15
115 15
116 15
117 9
118 9
119 9
120 9
121 9
122 9
123 9
124 9
125 12
126 12
127 12
128 12
129 19
130 19
131 12
132 12
133 12
134 12
135 15
136 15
137 9
138 9
139 9
140 9
141 9
142 9
143 12
144 12
145 12
146 12
147 12
148 12
149 12
150 12
151 12
152 12
153 12
154 12
155 1
156 1
157 1
158 1
159 9
160 9
161 1
162 1
163 12
164 12
165 12
166 12
167 12
168 12
169 12
170 12
171 12
172 12
173 12
174 12
175 1
176 1
177 1
178 1
179 1
180 1
181 1
182 1
183 1
184 1
185 12
186 12
187 16
188 16
189 12
190 12
191 12
192 12
193 12
194 12
195 1
196 1
197 1
198 1
199 1
200 1
ITEM: TIMESTEP
70
ITEM: NUMBER OF ELEMENT VALUES
200
ITEM: ELEMENT VALUES
1 1
2 1
3 1
4 1
5 16
6 16
7 16
8 16
9 16
10 16
11 1
12 1
13 1
14 1
15 1
16 1
17 1
18 1
19 1
20 1
21 1
22 1
23 1
24 1
25 16
26 16
27 16
28 16
29 16
30 16
31 16
32 16
33 1
34 1
35 1
36 1
37 1
38 1
39 1
40 1
41 9
42 9
43 9
44 9
45 16
46 16
47 16
48 16
49 16
50 16
51 16
52 16
53 1
54 1
55 1
56 1
57 1
58 1
59 9
60 9
61 9
62 9
63 9
64 9
65 9
66 9
67 16
68 16
69 19
70 19
71 19
72 19
73 1
74 1
75 1
76 1
77 9
78 9
79 9
80 9
81 9
82 9
83 9
84 9
85 9
86 9
87 19
88 19
89 19
90 19
91 19
92 19
93 15
94 15
95 15
96 15
97 9
98 9
99 9
100 9
101 9
102 9
103 9
104 9
105 9
106 9
107 19
108 19
109 19
110 19
111 19
112 19
113 15
114 15
115 15
116 15
117 9
118 9
119 9
120 9
121 9
122 9
123 9
124 9
125 12
126 12
127 12
128 12
129 12
130 12
131 12
132 12
133 12
134 12
135 1
136 1
137 9
138 9
139 9
140 9
141 1
142 1
143 12
144 12
145 12
146 12
147 12
148 12
149 12
150 12
151 12
152 12
153 12
154 12
155 1
156 1
157 1
158 1
159 1
160 1
161 1
162 1
163 12
164 12
165 12
166 12
167 12
168 12
169 12
170 12
171 12
172 12
173 12
174 12
175 1
176 1
177 1
178 1
179 1
180 1
181 1
182 1
183 1
184 1
185 12
186 12
187 16
188 16
189 12
190 12
191 12
192 12
193 1
194 1
195 1
196 1
197 1
198 1
199 1
200 1
ITEM: TIMESTEP
80
ITEM: NUMBER OF ELEMENT VALUES
200
ITEM: ELEMENT VALUES
1 1
2 1
3 1
4 1
5 16
6 16
7 16
8 16
9 16
10 16
11 1
12 1
13 1
14 1
15 1
16 1
17 1
18 1
19 1
20 1
21 1
22 1
23 1
24 1
25 16
26 16
27 16
28 16
29 16
30 16
31 1
32 1
33 1
34 1
35 1
36 1
37 1
38 1
39 1
40 1
41 9
42 9
43 9
44 9
45 16
46 16
47 16
48 16
49 16
50 16
51 16
52 16
53 1
54 1
55 1
56 1
57 1
58 1
59 9
60 9
61 9
62 9
63 9
64 9
65 9
66 9
67 19
68 19
69 19
70 19
71 19
72 19
73 1
74 1
75 1
76 1
77 9
78 9
79 9
80 9
81 9
82 9
83 9
84 9
85 9
86 9
87 19
88 19
89 19
90 19
91 19
92 19
93 15
94 15
95 9
96 9
97 9
98 9
99 9
100 9
101 9
102 9
103 9
104 9
105 9
106 9
107 19
108 19
109 19
110 19
111 19
112 19
113 15
114 15
115 15
116 15
117 9
118 9
119 9
120 9
121 9
122 9
123 9
124 9
125 12
126 12
127 12
128 12
129 12
130 12
131 12
132 12
133 12
134 12
135 15
136 15
137 9
138 9
139 9
140 9
141 9
142 9
143 12
144 12
145 12
146 12
147 12
148 12
149 12
150 12
151 12
152 12
153 12
154 12
155 1
156 1
157 1
158 1
159 1
160 1
161 1
162 1
163 12
164 12
165 12
166 12
167 12
168 12
169 12
170 12
171 12
172 12
173 12
174 12
175 1
176 1
177 1
178 1
179 1
180 1
181 1
182 1
183 1
184 1
185 12
186 12
187 12
188 12
189 12
190 12
191 12
192 12
193 1
194 1
195 1
196 1
197 1
198 1
199 1
200 1
ITEM: TIMESTEP
90
ITEM: NUMBER OF ELEMENT VALUES
200
ITEM: ELEMENT VALUES
1 1
2 1
3 1
4 1
5 16
6 16
7 16
8 16
9 16
10 16
11 1
12 1
13 1
14 1
15 1
16 1
17 1
18 1
19 1
20 1
21 1
22 1
23 16
24 16
25 16
26 16
27 16
28 16
29 16
30 16
31 1
32 1
33 1
34 1
35 1
36 1
37 1
38 1
39 1
40 1
41 9
42 9
43 9
44 9
45 16
46 16
47 16
48 16
49 16
50 16
51 1
52 1
53 1
54 1
55 1
56 1
57 1
58 1
59 9
60 9
61 9
62 9
63 9
64 9
65 9
66 9
67 19
68 19
69 19
70 19
71 19
72 19
73 19
74 19
75 1
76 1
77 9
78 9
79 9
80 9
81 9
82 9
83 9
84 9
85 9
86 9
87 19
88 19
89 19
90 19
91 19
92 19
93 19
94 19
95 9
96 9
97 9
98 9
99 9
100 9
101 9
102 9
103 9
104 9
105 9
106 9
107 19
108 19
109 19
110 19
111 19
112 19
113 14
114 14
115 1
116 1
117 9
118 9
119 9
120 9
121 9
122 9
123 9
124 9
125 12
126 12
127 12
128 12
129 12
130 12
131 12
132 12
133 12
134 12
135 1
136 1
137 1
138 1
139 1
140 1
141 1
142 1
143 12
144 12
145 12
146 12
147 12
148 12
149 12
150 12
151 12
152 12
153 12
154 12
155 1
156 1
157 1
158 1
159 1
160 1
161 1
162 1
163 1
164 1
165 12
166 12
167 12
168 12
169 12
170 12
171 12
172 12
173 12
174 12
175 1
176 1
177 1
178 1
179 1
180 1
181 1
182 1
183 1
184 1
185 12
186 12
187 12
188 12
189 12
190 12
191 12
192 12
193 1
194 1
195 1
196 1
197 1
198 1
199 1
200 1
ITEM: TIMESTEP
100
ITEM: NUMBER OF ELEMENT VALUES
200
ITEM: ELEMENT VALUES
1 1
2 1
3 1
4 1
5 16
6 16
7 12
8 12
9 12
10 12
11 1
12 1
13 1
14 1
15 1
16 1
17 1
18 1
19 1
20 1
21 1
22 1
23 16
24 16
25 16
26 16
27 16
28 16
29 16
30 16
31 1
32 1
33 1
34 1
35 1
36 1
37 1
38 1
39 1
40 1
41 9
42 9
43 9
44 9
45 16
46 16
47 16
48 16
49 16
50 16
51 1
52 1
53 1
54 1
55 1
56 1
57 1
58 1
59 1
60 1
61 9
62 9
63 9
64 9
65 9
66 9
67 19
68 19
69 19
70 19
71 19
72 19
73 19
74 19
75 1
76 1
77 9
78 9
79 9
80 9
81 9
82 9
83 9
84 9
85 9
86 9
87 19
88 19
89 19
90 19
91 19
92 19
93 19
94 19
95 9
96 9
97 9
98 9
99 9
100 9
101 9
102 9
103 9
104 9
105 9
106 9
107 12
108 12
109 12
110 12
111 19
112 19
113 9
114 9
115 9
116 9
117 9
118 9
119 9
120 9
121 9
122 9
123 9
124 9
125 12
126 12
127 12
128 12
129 12
130 12
131 12
132 12
133 12
134 12
135 1
136 1
137 1
138 1
139 9
140 9
141 1
142 1
143 1
144 1
145 12
146 12
147 12
148 12
149 12
150 12
151 12
152 12
153 12
154 12
155 1
156 1
157 1
158 1
159 1
160 1
161 1
162 1
163 1
164 1
165 12
166 12
167 12
168 12
169 12
170 12
171 12
172 12
173 12
174 12
175 1
176 1
177 1
178 1
179 1
180 1
181 1
182 1
183 1
184 1
185 12
186 12
187 12
188 12
189 12
190 12
191 12
192 12
193 1
194 1
195 1
196 1
197 1
198 1
199 1
200 1
ITEM: TIMESTEP
110
ITEM: NUMBER OF ELEMENT VALUES
200
ITEM: ELEMENT VALUES
1 1
2 1
3 1
4 1
5 16
6 16
7 16
8 16
9 12
10 12
11 1
12 1
13 1
14 1
15 1
16 1
17 1
18 1
19 1
20 1
21 1
22 1
23 16
24 16
25 16
26 16
27 16
28 16
29 16
30 16
31 1
32 1
33 1
34 1
35 1
36 1
37 1
38 1
39 1
40 1
41 9
42 9
43 9
44 9
45 16
46 16
47 16
48 16
49 16
50 16
51 1
52 1
53 1
54 1
55 1
56 1
57 1
58 1
59 1
60 1
61 9
62 9
63 9
64 9
65 9
66 9
67 19
68 19
69 19
70 19
71 19
72 19
73 1
74 1
75 1
76 1
77 9
78 9
79 9
80 9
81 9
82 9
83 9
84 9
85 9
86 9
87 19
88 19
89 19
90 19
91 19
92 19
93 19
94 19
95 9
96 9
97 9
98 9
99 9
100 9
101 9
102 9
103 9
104 9
105 9
106 9
107 19
108 19
109 19
110 19
111 19
112 19
113 19
114 19
115 9
116 9
117 9
118 9
119 9
120 9
121 9
122 9
123 9
124 9
125 12
126 12
127 12
128 12
129 12
130 12
131 12
132 12
133 12
134 12
135 9
136 9
137 9
138 9
139 9
140 9
141 1
142 1
143 12
144 12
145 12
146 12
147 12
148 12
149 12
150 12
151 12
152 12
153 12
154 12
155 1
156 1
157 1
158 1
159 1
160 1
161 1
162 1
163 1
164 1
165 12
166 12
167 12
168 12
169 12
170 12
171 12
172 12
173 1
174 1
175 1
176 1
177 1
178 1
179 1
180 1
181 1
182 1
183 1
184 1
185 12
186 12
187 12
188 12
189 12
190 12
191 12
192 12
193 1
194 1
195 1
196 1
197 1
198 1
199 1
200 1
ITEM: TIMESTEP
120
ITEM: NUMBER OF ELEMENT VALUES
200
ITEM: ELEMENT VALUES
1 1
2 1
3 1
4 1
5 16
6 16
7 16
8 16
9 12
10 12
11 1
12 1
13 1
14 1
15 1
16 1
17 1
18 1
19 1
20 1
21 1
22 1
23 16
24 16
25 16
26 16
27 16
28 16
29 16
30 16
31 1
32 1
33 1
34 1
35 1
36 1
37 1
38 1
39 1
40 1
41 9
42 9
43 9
44 9
45 16
46 16
47 16
48 16
49 16
50 16
51 1
52 1
53 1
54 1
55 1
56 1
57 1
58 1
59 1
60 1
61 9
62 9
63 9
64 9
65 9
66 9
67 19
68 19
69 19
70 19
71 19
72 19
73 1
74 1
75 1
76 1
77 9
78 9
79 9
80 9
81 9
82 9
83 9
84 9
85 9
86 9
87 19
88 19
89 19
90 19
91 19
92 19
93 19
94 19
95 9
96 9
97 9
98 9
99 9
100 9
101 9
102 9
103 9
104 9
105 9
106 9
107 19
108 19
109 19
110 19
111 19
112 19
113 19
114 19
115 9
116 9
117 9
118 9
119 9
120 9
121 9
122 9
123 9
124 9
125 12
126 12
127 12
128 12
129 12
130 12
131 12
132 12
133 12
134 12
135 9
136 9
137 9
138 9
139 9
140 9
141 1
142 1
143 12
144 12
145 12
146 12
147 12
148 12
149 12
150 12
151 12
152 12
153 12
154 12
155 1
156 1
157 1
158 1
159 1
160 1
161 1
162 1
163 1
164 1
165 12
166 12
167 12
168 12
169 12
170 12
171 12
172 12
173 1
174 1
175 1
176 1
177 1
178 1
179 1
180 1
181 1
182 1
183 1
184 1
185 12
186 12
187 12
188 12
189 12
190 12
191 1
192 1
193 1
194 1
195 1
196 1
197 1
198 1
199 1
200 1
ITEM: TIMESTEP
130
ITEM: NUMBER OF ELEMENT VALUES
200
ITEM: ELEMENT VALUES
1 1
2 1
3 1
4 1
5 16
6 16
7 16
8 16
9 1
10 1
11 1
12 1
13 1
14 1
15 1
16 1
17 1
18 1
19 1
20 1
21 1
22 1
23 1
24 1
25 16
26 16
27 16
28 16
29 16
30 16
31 1
32 1
33 1
34 1
35 1
36 1
37 1
38 1
39 1
40 1
41 9
42 9
43 9
44 9
45 16
46 16
47 16
48 16
49 16
50 16
51 1
52 1
53 1
54 1
55 1
56 1
57 1
58 1
59 9
60 9
61 9
62 9
63 9
64 9
65 9
66 9
67 16
68 16
69 19
70 19
71 19
72 19
73 1
74 1
75 1
76 1
77 9
78 9
79 9
80 9
81 9
82 9
83 9
84 9
85 9
86 9
87 19
88 19
89 19
90 19
91 19
92 19
93 19
94 19
95 9
96 9
97 9
98 9
99 9
100 9
101 9
102 9
103 9
104 9
105 9
106 9
107 12
108 12
109 12
110 12
111 19
112 19
113 9
114 9
115 9
116 9
117 9
118 9
119 9
120 9
121 9
122 9
123 9
124 9
125 12
126 12
127 12
128 12
129 12
130 12
131 12
132 12
133 12
134 12
135 9
136 9
137 9
138 9
139 9
140 9
141 1
142 1
143 1
144 1
145 12
146 12
147 12
148 12
149 12
150 12
151 12
152 12
153 12
154 12
155 1
156 1
157 1
158 1
159 1
160 1
161 1
162 1
163 1
164 1
165 12
166 12
167 12
168 12
169 12
170 12
171 12
172 12
173 1
174 1
175 1
176 1
177 1
178 1
179 1
180 1
181 1
182 1
183 1
184 1
185 12
186 12
187 12
188 12
189 12
190 12
191 1
192 1
193 1
194 1
195 1
196 1
197 1
198 1
199 1
200 1
ITEM: TIMESTEP
140
ITEM: NUMBER OF ELEMENT VALUES
200
ITEM: ELEMENT VALUES
1 1
2 1
3 1
4 1
5 16
6 16
7 16
8 16
9 16
10 16
11 1
12 1
13 1
14 1
15 1
16 1
17 1
18 1
19 1
20 1
21 1
22 1
23 16
24 16
25 16
26 16
27 16
28 16
29 16
30 16
31 1
32 1
33 1
34 1
35 1
36 1
37 1
38 1
39 1
40 1
41 9
42 9
43 9
44 9
45 16
46 16
47 16
48 16
49 16
50 16
51 1
52 1
53 1
54 1
55 1
56 1
57 1
58 1
59 1
60 1
61 9
62 9
63 9
64 9
65 9
66 9
67 19
68 19
69 19
70 19
71 19
72 19
73 1
74 1
75 1
76 1
77 9
78 9
79 9
80 9
81 9
82 9
83 9
84 9
85 9
86 9
87 9
88 9
89 19
90 19
91 19
92 19
93 9
94 9
95 9
96 9
97 9
98 9
99 9
100 9
101 9
102 9
103 9
104 9
105 9
106 9
107 12
108 12
109 12
110 12
111 19
112 19
113 9
114 9
115 9
116 9
117 9
118 9
119 9
120 9
121 9
122 9
123 9
124 9
125 12
126 12
127 12
128 12
129 12
130 12
131 12
132 12
133 12
134 12
135 9
136 9
137 9
138 9
139 9
140 9
141 1
142 1
143 1
144 1
145 12
146 12
147 12
148 12
149 12
150 12
151 12
152 12
153 12
154 12
155 1
156 1
157 1
158 1
159 1
160 1
161 1
162 1
163 1
164 1
165 1
166 1
167 12
168 12
169 12
170 12
171 12
172 12
173 1
174 1
175 1
176 1
177 1
178 1
179 1
180 1
181 1
182 1
183 1
184 1
185 1
186 1
187 12
188 12
189 12
190 12
191 1
192 1
193 1
194 1
195 1
196 1
197 1
198 1
199 1
200 1
ITEM: TIMESTEP
150
ITEM: NUMBER OF ELEMENT VALUES
200
ITEM: ELEMENT VALUES
1 1
2 1
3 1
4 1
5 1
6 1
7 16
8 16
9 1
10 1
11 1
12 1
13 1
14 1
15 1
16 1
17 1
18 1
19 1
20 1
21 1
22 1
23 1
24 1
25 16
26 16
27 16
28 16
29 16
30 16
31 1
32 1
33 1
34 1
35 1
36 1
37 1
38 1
39 1
40 1
41 9
42 9
43 9
44 9
45 16
46 16
47 16
48 16
49 16
50 16
51 1
52 1
53 1
54 1
55 1
56 1
57 1
58 1
59 1
60 1
61 9
62 9
63 9
64 9
65 9
66 9
67 16
68 16
69 16
70 16
71 1
72 1
73 1
74 1
75 9
76 9
77 9
78 9
79 9
80 9
81 9
82 9
83 9
84 9
85 9
86 9
87 9
88 9
89 9
90 9
91 9
92 9
93 9
94 9
95 9
96 9
97 9
98 9
99 9
100 9
101 9
102 9
103 9
104 9
105 9
106 9
107 9
108 9
109 12
110 12
111 14
112 14
113 9
114 9
115 9
116 9
117 9
118 9
119 9
120 9
121 9
122 9
123 9
124 9
125 12
126 12
127 12
128 12
129 12
130 12
131 12
132 12
133 12
134 12
135 9
136 9
137 9
138 9
139 9
140 9
141 1
142 1
143 1
144 1
145 12
146 12
147 12
148 12
149 12
150 12
151 12
152 12
153 12
154 12
155 1
156 1
157 1
158 1
159 1
160 1
161 1
162 1
163 1
164 1
165 1
166 1
167 12
168 12
169 12
170 12
171 12
172 12
173 1
174 1
175 1
176 1
177 1
178 1
179 1
180 1
181 1
182 1
183 1
184 1
185 1
186 1
187 12
188 12
189 12
190 12
191 1
192 1
193 1
194 1
195 1
196 1
197 1
198 1
199 1
200 1
ITEM: TIMESTEP
160
ITEM: NUMBER OF ELEMENT VALUES
200
ITEM: ELEMENT VALUES
1 1
2 1
3 1
4 1
5 1
6 1
7 1
8 1
9 1
10 1
11 1
12 1
13 1
14 1
15 1
16 1
17 1
18 1
19 1
20 1
21 1
22 1
23 1
24 1
25 1
26 1
27 1
28 1
29 1
30 1
31 1
32 1
33 1
34 1
35 1
36 1
37 1
38 1
39 1
40 1
41 1
42 1
43 1
44 1
45 1
46 1
47 1
48 1
49 1
50 1
51 1
52 1
53 1
54 1
55 1
56 1
57 1
58 1
59 1
60 1
61 9
62 9
63 9
64 9
65 9
66 9
67 1
68 1
69 1
70 1
71 1
72 1
73 1
74 1
75 1
76 1
77 1
78 1
79 1
80 1
81 9
82 9
83 9
84 9
85 9
86 9
87 9
88 9
89 1
90 1
91 1
92 1
93 1
94 1
95 9
96 9
97 9
98 9
99 9
100 9
101 9
102 9
103 9
104 9
105 9
106 9
107 12
108 12
109 12
110 12
111 12
112 12
113 12
114 12
115 9
116 9
117 9
118 9
119 9
120 9
121 9
122 9
123 9
124 9
125 12
126 12
127 12
128 12
129 12
130 12
131 12
132 12
133 12
134 12
135 9
136 9
137 9
138 9
139 9
140 9
141 1
142 1
143 1
144 1
145 12
146 12
147 12
148 12
149 12
150 12
151 12
152 12
153 12
154 12
155 1
156 1
157 1
158 1
159 1
160 1
161 1
162 1
163 1
164 1
165 1
166 1
167 12
168 12
169 12
170 12
171 12
172 12
173 1
174 1
175 1
176 1
177 1
178 1
179 1
180 1
181 1
182 1
183 1
184 1
185 1
186 1
187 12
188 12
189 12
190 12
191 1
192 1
193 1
194 1
195 1
196 1
197 1
198 1
199 1
200 1
ITEM: TIMESTEP
170
ITEM: NUMBER OF ELEMENT VALUES
200
ITEM: ELEMENT VALUES
1 1
2 1
3 1
4 1
5 1
6 1
7 1
8 1
9 1
10 1
11 1
12 1
13 1
14 1
15 1
16 1
17 1
18 1
19 1
20 1
21 1
22 1
23 1
24 1
25 1
26 1
27 1
28 1
29 1
30 1
31 1
32 1
33 1
34 1
35 1
36 1
37 1
38 1
39 1
40 1
41 1
42 1
43 1
44 1
45 1
46 1
47 1
48 1
49 1
50 1
51 1
52 1
53 1
54 1
55 1
56 1
57 1
58 1
59 1
60 1
61 9
62 9
63 9
64 9
65 9
66 9
67 1
68 1
69 1
70 1
71 1
72 1
73 1
74 1
75 1
76 1
77 9
78 9
79 9
80 9
81 9
82 9
83 9
84 9
85 9
86 9
87 9
88 9
89 1
90 1
91 1
92 1
93 1
94 1
95 9
96 9
97 9
98 9
99 9
100 9
101 9
102 9
103 9
104 9
105 9
106 9
107 12
108 12
109 12
110 12
111 12
112 12
113 12
114 12
115 9
116 9
117 9
118 9
119 9
120 9
121 9
122 9
123 9
124 9
125 12
126 12
127 12
128 12
129 12
130 12
131 12
132 12
133 12
134 12
135 12
136 12
137 9
138 9
139 9
140 9
141 1
142 1
143 1
144 1
145 12
146 12
147 12
148 12
149 12
150 12
151 12
152 12
153 12
154 12
155 1
156 1
157 1
158 1
159 1
160 1
161 1
162 1
163 1
164 1
165 12
166 12
167 12
168 12
169 12
170 12
171 12
172 12
173 1
174 1
175 1
176 1
177 1
178 1
179 1
180 1
181 1
182 1
183 1
184 1
185 1
186 1
187 12
188 12
189 12
190 12
191 1
192 1
193 1
194 1
195 1
196 1
197 1
198 1
199 1
200 1
ITEM: TIMESTEP
180
ITEM: NUMBER OF ELEMENT VALUES
200
ITEM: ELEMENT VALUES
1 1
2 1
3 1
4 1
5 1
6 1
7 1
8 1
9 1
10 1
11 1
12 1
13 1
14 1
15 1
16 1
17 1
18 1
19 1
20 1
21 1
22 1
23 1
24 1
25 1
26 1
27 1
28 1
29 1
30 1
31 1
32 1
33 1
34 1
35 1
36 1
37 1
38 1
39 1
40 1
41 1
42 1
43 1
44 1
45 1
46 1
47 1
48 1
49 1
50 1
51 1
52 1
53 1
54 1
55 1
56 1
57 1
58 1
59 1
60 1
61 9
62 9
63 9
64 9
65 9
66 9
67 1
68 1
69 1
70 1
71 1
72 1
73 1
74 1
75 1
76 1
77 9
78 9
79 9
80 9
81 9
82 9
83 9
84 9
85 9
86 9
87 9
88 9
89 1
90 1
91 1
92 1
93 1
94 1
95 9
96 9
97 9
98 9
99 9
100 9
101 9
102 9
103 9
104 9
105 9
106 9
107 12
108 12
109 12
110 12
111 12
112 12
113 12
114 12
115 9
116 9
117 9
118 9
119 9
120 9
121 9
122 9
123 9
124 9
125 12
126 12
127 12
128 12
129 12
130 12
131 12
132 12
133 12
134 12
135 12
136 12
137 9
138 9
139 9
140 9
141 1
142 1
143 1
144 1
145 12
146 12
147 12
148 12
149 12
150 12
151 12
152 12
153 12
154 12
155 1
156 1
157 1
158 1
159 1
160 1
161 1
162 1
163 1
164 1
165 1
166 1
167 12
168 12
169 12
170 12
171 12
172 12
173 1
174 1
175 1
176 1
177 1
178 1
179 1
180 1
181 1
182 1
183 1
184 1
185 1
186 1
187 1
188 1
189 12
190 12
191 1
192 1
193 1
194 1
195 1
196 1
197 1
198 1
199 1
200 1
ITEM: TIMESTEP
190
ITEM: NUMBER OF ELEMENT VALUES
200
ITEM: ELEMENT VALUES
1 1
2 1
3 1
4 1
5 1
6 1
7 1
8 1
9 1
10 1
11 1
12 1
13 1
14 1
15 1
16 1
17 1
18 1
19 1
20 1
21 1
22 1
23 1
24 1
25 1
26 1
27 1
28 1
29 1
30 1
31 1
32 1
33 1
34 1
35 1
36 1
37 1
38 1
39 1
40 1
41 1
42 1
43 1
44 1
45 1
46 1
47 1
48 1
49 1
50 1
51 1
52 1
53 1
54 1
55 1
56 1
57 1
58 1
59 1
60 1
61 9
62 9
63 9
64 9
65 9
66 9
67 1
68 1
69 1
70 1
71 1
72 1
73 1
74 1
75 1
76 1
77 9
78 9
79 9
80 9
81 9
82 9
83 9
84 9
85 9
86 9
87 9
88 9
89 1
90 1
91 1
92 1
93 1
94 1
95 9
96 9
97 9
98 9
99 9
100 9
101 9
102 9
103 9
104 9
105 9
106 9
107 12
108 12
109 12
110 12
111 12
112 12
113 12
114 12
115 9
116 9
117 9
118 9
119 9
120 9
121 9
122 9
123 9
124 9
125 12
126 12
127 12
128 12
129 12
130 12
131 12
132 12
133 12
134 12
135 12
136 12
137 9
138 9
139 9
140 9
141 1
142 1
143 1
144 1
145 12
146 12
147 12
148 12
149 12
150 12
151 12
152 12
153 12
154 12
155 1
156 1
157 1
158 1
159 1
160 1
161 1
162 1
163 1
164 1
165 1
166 1
167 12
168 12
169 12
170 12
171 12
172 12
173 1
174 1
175 1
176 1
177 1
178 1
179 1
180 1
181 1
182 1
183 1
184 1
185 1
186 1
187 1
188 1
189 12
190 12
191 1
192 1
193 1
194 1
195 1
196 1
197 1
198 1
199 1
200 1
ITEM: TIMESTEP
200
ITEM: NUMBER OF ELEMENT VALUES
200
ITEM: ELEMENT VALUES
1 1
2 1
3 1
4 1
5 1
6 1
7 1
8 1
9 1
10 1
11 1
12 1
13 1
14 1
15 1
16 1
17 1
18 1
19 1
20 1
21 1
22 1
23 1
24 1
25 1
26 1
27 1
28 1
29 1
30 1
31 1
32 1
33 1
34 1
35 1
36 1
37 1
38 1
39 1
40 1
41 1
42 1
43 1
44 1
45 1
46 1
47 1
48 1
49 1
50 1
51 1
52 1
53 1
54 1
55 1
56 1
57 1
58 1
59 1
60 1
61 9
62 9
63 9
64 9
65 9
66 9
67 1
68 1
69 1
70 1
71 1
72 1
73 1
74 1
75 1
76 1
77 9
78 9
79 9
80 9
81 9
82 9
83 9
84 9
85 9
86 9
87 9
88 9
89 1
90 1
91 1
92 1
93 1
94 1
95 9
96 9
97 9
98 9
99 9
100 9
101 9
102 9
103 9
104 9
105 9